 Gaussian 09, Revision D.01,

 ----------------------------------------------------------------------
 # B3LYP/6-31G* OPT=(calcall,tight,MaxCyc=200) SCF=tight integral=(grid
 =fine)
 ----------------------------------------------------------------------

 ----------
 Title: EDO
 ----------
 Symbolic Z-matrix:
 Charge =  0 Multiplicity = 1

 SCF Done:  E(RB3LYP) =  -230.127320259     A.U. after   12 cycles
 SCF Done:  E(RB3LYP) =  -230.211860123     A.U. after   12 cycles
 SCF Done:  E(RB3LYP) =  -230.238799845     A.U. after   13 cycles
 SCF Done:  E(RB3LYP) =  -230.241108297     A.U. after   11 cycles
 SCF Done:  E(RB3LYP) =  -230.241204167     A.U. after   11 cycles
 SCF Done:  E(RB3LYP) =  -230.241204464     A.U. after    7 cycles
 SCF Done:  E(RB3LYP) =  -230.241204465     A.U. after    4 cycles
 Optimization completed.
    -- Stationary point found.

  Exact polarizability:  29.719  -0.618  30.831   1.315  -0.020  28.362
 Approx polarizability:  37.782  -1.213  41.440   2.781   0.710  38.158

                      1                      2                      3
                      A                      A                      A
 Frequencies --    176.6988               327.6128               350.4389
 Red. masses --      3.0547                 2.3841                 1.1277
 Frc consts  --      0.0562                 0.1508                 0.0816
 IR Inten    --      7.4539                 3.8248                79.9379

                      4                      5                      6
                      A                      A                      A
 Frequencies --    519.0003               553.1172               874.2851
 Red. masses --      1.1950                 1.8562                 2.1561
 Frc consts  --      0.1896                 0.3346                 0.9710
 IR Inten    --     96.5842                92.5833                29.3661

                      7                      8                      9
                      A                      A                      A
 Frequencies --    897.0606              1066.6149              1074.5620
 Red. masses --      2.0720                 1.6310                 2.4313
 Frc consts  --      0.9824                 1.0933                 1.6541
 IR Inten    --     14.4380                51.0801                13.6350

                     10                     11                     12
                      A                      A                      A
 Frequencies --   1110.7951              1211.7812              1248.9992
 Red. masses --      3.4166                 1.2180                 1.2764
 Frc consts  --      2.4837                 1.0538                 1.1732
 IR Inten    --    109.8803                17.4981                27.0184

                     13                     14                     15
                      A                      A                      A
 Frequencies --   1388.2406              1395.6154              1422.2110
 Red. masses --      1.2189                 1.2839                 1.2148
 Frc consts  --      1.3840                 1.4734                 1.4477
 IR Inten    --      2.5970                 6.5715                34.4059

                     16                     17                     18
                      A                      A                      A
 Frequencies --   1458.3837              1522.6409              1537.3526
 Red. masses --      1.3147                 1.0904                 1.0982
 Frc consts  --      1.6475                 1.4895                 1.5293
 IR Inten    --     75.9885                 3.2174                 0.8965

                     19                     20                     21
                      A                      A                      A
 Frequencies --   2949.8546              3025.0560              3089.8246
 Red. masses --      1.0738                 1.0692                 1.0891
 Frc consts  --      5.5055                 5.7648                 6.1263
 IR Inten    --     84.7402                59.8285                38.7714

                     22                     23                     24
                      A                      A                      A
 Frequencies --   3120.9517              3692.8083              3730.0370
 Red. masses --      1.0972                 1.0650                 1.0662
 Frc consts  --      6.2969                 8.5571                 8.7397
 IR Inten    --     34.6095                32.2508                12.2302

 - Thermochemistry -
 -------------------
 Temperature   298.150 Kelvin.  Pressure   1.00000 Atm.
 Atom     1 has atomic number  6 and mass  12.00000

 Molecular mass:    62.03678 amu.
 Principal axes and moments of inertia in atomic units:
                           1         2         3
     Eigenvalues --   121.16803 316.90495 386.86142
           X            1.00000   0.00077  -0.00030
           Y           -0.00078   0.99979  -0.02059
           Z            0.00028   0.02059   0.99979
 This molecule is an asymmetric top.
 Rotational symmetry number  1.
 Rotational temperatures (Kelvin)      0.71482     0.27331     0.22389
 Rotational constants (GHZ):          14.89453     5.69490     4.66508
 Zero-point vibrational energy     225758.9 (Joules/Mol)
                                   53.95767 (Kcal/Mol)
 Warning -- explicit consideration of   5 degrees of freedom as
           vibrations may cause significant error
 Vibrational temperatures:    254.23   471.36   504.20   746.72   795.81
          (Kelvin)           1257.90  1290.67  1534.62  1546.05  1598.18
                             1743.48  1797.03  1997.37  2007.98  2046.24
                             2098.29  2190.74  2211.90  4244.18  4352.38
                             4445.56  4490.35  5313.12  5366.68

 Zero-point correction=                           0.085987 (Hartree/Particle)
 Thermal correction to Energy=                    0.090824
 Thermal correction to Enthalpy=                  0.091768
 Thermal correction to Gibbs Free Energy=         0.058930
 Sum of electronic and zero-point Energies=           -230.155217
 Sum of electronic and thermal Energies=              -230.150381
 Sum of electronic and thermal Enthalpies=            -230.149436
 Sum of electronic and thermal Free Energies=         -230.182274

                     E (Thermal)             CV                S
                      KCal/Mol        Cal/Mol-Kelvin    Cal/Mol-Kelvin
 Total                   56.993             16.202             69.113
 Electronic               0.000              0.000              0.000
 Translational            0.889              2.981             38.295
 Rotational               0.889              2.981             24.211
 Vibrational             55.215             10.240              6.607
 Vibration     1          0.628              1.871              2.363
 Vibration     2          0.711              1.620              1.272
 Vibration     3          0.727              1.574              1.164
 Vibration     4          0.874              1.208              0.612
 Vibration     5          0.908              1.133              0.538

 Normal termination of Gaussian 09 at Sun Mar 20 13:13:12 2016.
 Gaussian 09:  ES64L-G09RevD.01 24-Apr-2013

 ----------------------------------------------------------------------
 #P guess=read geom=allcheck SCF=tight HF/6-31G* Pop=MK IOp(6/33=2,6/41
 =10,6/42=17)
 ----------------------------------------------------------------------

 Structure from the checkpoint file:  "edo.chk"
 ----------
 Title: EDO
 ----------
 Charge =  0 Multiplicity = 1

                         Standard orientation:
 ---------------------------------------------------------------------
 Center     Atomic      Atomic             Coordinates (Angstroms)
 Number     Number       Type             X           Y           Z
 ---------------------------------------------------------------------
      1          6           0        0.682579    0.610562   -0.280924
      2          8           0        1.372031   -0.599282    0.051384
      3          6           0       -0.736267    0.576554    0.277077
      4          8           0       -1.417637   -0.582552   -0.162567
      5          1           0        0.651021    0.634244   -1.374217
      6          1           0        1.229132    1.498527    0.070688
      7          1           0        1.570510   -0.573169    1.001332
      8          1           0       -0.695545    0.623976    1.382077
      9          1           0       -1.307067    1.447178   -0.065832
     10          1           0       -0.761073   -1.298776   -0.101503
 ---------------------------------------------------------------------

 SCF Done:  E(RHF) =  -228.922000016     A.U. after   11 cycles

 The electronic state is 1-A.
 Alpha  occ. eigenvalues --  -20.58044 -20.55593 -11.28680 -11.28005  -1.37769
 Alpha  occ. eigenvalues --   -1.34411  -0.99892  -0.84929  -0.70365  -0.68575
 Alpha  occ. eigenvalues --   -0.64230  -0.61352  -0.56911  -0.52200  -0.50612
 Alpha  occ. eigenvalues --   -0.46696  -0.43156
 Alpha virt. eigenvalues --    0.20463   0.26413   0.28417   0.28842   0.30319
 Alpha virt. eigenvalues --    0.32496   0.37627   0.41191   0.42803   0.74967
 Alpha virt. eigenvalues --    0.78466   0.80699   0.80796   0.88710   0.91199

 Mulliken charges:
               1
     1  C   -0.039578
     2  O   -0.748578
     3  C    0.000873
     4  O   -0.745472
     5  H    0.189611
     6  H    0.152013
     7  H    0.438169
     8  H    0.128773
     9  H    0.168451
    10  H    0.455738
 Sum of Mulliken charges =  -0.00000

 Dipole moment (field-independent basis, Debye):
    X=              1.5271    Y=              1.5176    Z=              1.6718  Tot=              2.7258
 Quadrupole moment (field-independent basis, Debye-Ang):
   XX=            -30.4248   YY=            -23.0451   ZZ=            -22.8640
   XY=             -0.1645   XZ=              1.8733   YZ=             -1.2756

 ESP charges:
               1
     1  C    0.139082
     2  O   -0.654536
     3  C    0.191381
     4  O   -0.639479
     5  H    0.085567
     6  H    0.003350
     7  H    0.422869
     8  H    0.000723
     9  H    0.043885
    10  H    0.407159
 Sum of ESP charges =  -0.00000

 Normal termination of Gaussian 09 at Sun Mar 20 13:13:14 2016.
