 Gaussian 09, Revision D.01,

 ----------------------------------------------------------------------
 # B3LYP/6-31G* OPT=(calcall,tight,MaxCyc=200) SCF=tight integral=(grid
 =fine)
 ----------------------------------------------------------------------

 --------------
 Title: NO3, 2-
 --------------
 Symbolic Z-matrix:
 Charge = -1 Multiplicity = 1

 SCF Done:  E(RB3LYP) =  -280.328276070     A.U. after   15 cycles
 SCF Done:  E(RB3LYP) =  -280.335537912     A.U. after   13 cycles
 SCF Done:  E(RB3LYP) =  -280.335858374     A.U. after   10 cycles
 SCF Done:  E(RB3LYP) =  -280.335868187     A.U. after    9 cycles
 SCF Done:  E(RB3LYP) =  -280.335868756     A.U. after    6 cycles
 SCF Done:  E(RB3LYP) =  -280.335867208     A.U. after    5 cycles
 SCF Done:  E(RB3LYP) =  -280.335868029     A.U. after    5 cycles
 SCF Done:  E(RB3LYP) =  -280.335868167     A.U. after    4 cycles
 SCF Done:  E(RB3LYP) =  -280.335867745     A.U. after    4 cycles
 SCF Done:  E(RB3LYP) =  -280.335868515     A.U. after    5 cycles
 SCF Done:  E(RB3LYP) =  -280.335866508     A.U. after    5 cycles
 SCF Done:  E(RB3LYP) =  -280.335868790     A.U. after    5 cycles
 SCF Done:  E(RB3LYP) =  -280.335868618     A.U. after    5 cycles
 SCF Done:  E(RB3LYP) =  -280.335868161     A.U. after    5 cycles
 SCF Done:  E(RB3LYP) =  -280.335866292     A.U. after    6 cycles
 SCF Done:  E(RB3LYP) =  -280.335868110     A.U. after    5 cycles
 SCF Done:  E(RB3LYP) =  -280.335868823     A.U. after    6 cycles
 SCF Done:  E(RB3LYP) =  -280.335866927     A.U. after    6 cycles
 SCF Done:  E(RB3LYP) =  -280.335866445     A.U. after    5 cycles
 Optimization completed.
    -- Stationary point found.

  Exact polarizability:  23.390   0.001  23.389  -0.000  -0.000   9.088
 Approx polarizability:  44.481   0.002  44.480  -0.000   0.000  12.728

                      1                      2                      3
                     A'                     A'                     A"
 Frequencies --    706.1242               706.3151               837.8794
 Red. masses --     15.8462                15.8462                14.4084
 Frc consts  --      4.6552                 4.6577                 5.9598
 IR Inten    --      1.1213                 1.1165                23.2764

                      4                      5                      6
                     A'                     A'                     A'
 Frequencies --   1076.4152              1469.4298              1469.7301
 Red. masses --     15.9949                14.5313                14.5312
 Frc consts  --     10.9192                18.4864                18.4938
 IR Inten    --      0.0000               445.6701               445.7644

 - Thermochemistry -
 -------------------
 Temperature   298.150 Kelvin.  Pressure   1.00000 Atm.
 Atom     1 has atomic number  7 and mass  14.00307

 Molecular mass:    61.98782 amu.
 Principal axes and moments of inertia in atomic units:
                           1         2         3
     Eigenvalues --   136.94210 136.96057 273.90267
           X            0.75612  -0.65443  -0.00000
           Y            0.65443   0.75612  -0.00000
           Z            0.00000  -0.00000   1.00000
 This molecule is an asymmetric top.
 Rotational symmetry number  1.
 Rotational temperatures (Kelvin)      0.63248     0.63240     0.31622
 Rotational constants (GHZ):          13.17886    13.17709     6.58899
 Zero-point vibrational energy      37478.4 (Joules/Mol)
                                    8.95754 (Kcal/Mol)
 Vibrational temperatures:   1015.95  1016.23  1205.52  1548.72  2114.18
          (Kelvin)           2114.61

 Zero-point correction=                           0.014275 (Hartree/Particle)
 Thermal correction to Energy=                    0.017434
 Thermal correction to Enthalpy=                  0.018379
 Thermal correction to Gibbs Free Energy=        -0.011232
 Sum of electronic and zero-point Energies=           -280.321592
 Sum of electronic and thermal Energies=              -280.318432
 Sum of electronic and thermal Enthalpies=            -280.317488
 Sum of electronic and thermal Free Energies=         -280.347098

                     E (Thermal)             CV                S
                      KCal/Mol        Cal/Mol-Kelvin    Cal/Mol-Kelvin
 Total                   10.940              8.654             62.320
 Electronic               0.000              0.000              0.000
 Translational            0.889              2.981             38.293
 Rotational               0.889              2.981             23.156
 Vibrational              9.163              2.692              0.872

 Normal termination of Gaussian 09 at Sun Mar 20 13:11:47 2016.
 Gaussian 09:  ES64L-G09RevD.01 24-Apr-2013

 ----------------------------------------------------------------------
 #P guess=read geom=allcheck SCF=tight HF/6-31G* Pop=MK IOp(6/33=2,6/41
 =10,6/42=17)
 ----------------------------------------------------------------------

 Structure from the checkpoint file:  "no3.chk"
 --------------
 Title: NO3, 2-
 --------------
 Charge = -1 Multiplicity = 1

                         Standard orientation:
 ---------------------------------------------------------------------
 Center     Atomic      Atomic             Coordinates (Angstroms)
 Number     Number       Type             X           Y           Z
 ---------------------------------------------------------------------
      1          7           0        0.000000   -0.000006   -0.000000
      2          8           0        1.150398   -0.524355    0.000000
      3          8           0       -1.029376   -0.734115   -0.000000
      4          8           0       -0.121022    1.258475    0.000000
 ---------------------------------------------------------------------

 SCF Done:  E(RHF) =  -278.906272604     A.U. after   10 cycles

 The electronic state is 1-A'.
 Alpha  occ. eigenvalues --  -20.34413 -20.34412 -20.34405 -15.65241  -1.36859
 Alpha  occ. eigenvalues --   -1.11724  -1.11722  -0.62117  -0.48844  -0.48844
 Alpha  occ. eigenvalues --   -0.48803  -0.27096  -0.27096  -0.22044  -0.22044
 Alpha  occ. eigenvalues --   -0.20858
 Alpha virt. eigenvalues --    0.37058   0.64586   0.80974   0.80975   1.05006
 Alpha virt. eigenvalues --    1.13127   1.13127   1.14348   1.31977   1.36345
 Alpha virt. eigenvalues --    1.36349   1.45602   1.45603   1.45918   1.45920

 Mulliken charges:
               1
     1  N    0.866545
     2  O   -0.622153
     3  O   -0.622218
     4  O   -0.622173
 Sum of Mulliken charges =  -1.00000

 Dipole moment (field-independent basis, Debye):
    X=              0.0003    Y=              0.0000    Z=             -0.0000  Tot=              0.0003
 Quadrupole moment (field-independent basis, Debye-Ang):
   XX=            -29.3286   YY=            -29.3285   ZZ=            -21.6673
   XY=             -0.0005   XZ=             -0.0000   YZ=              0.0000

 ESP charges:
               1
     1  N    0.975754
     2  O   -0.658590
     3  O   -0.658622
     4  O   -0.658542
 Sum of ESP charges =  -1.00000

 Normal termination of Gaussian 09 at Sun Mar 20 13:11:49 2016.
